<?xml version="1.0" encoding="UTF-8"?>

<!-- generated on 2025-03-13 11:37:45 by Eclipse SUMO GUI Version 1.18.0
<configuration xmlns:xsi="http://www.w3.org/2001/XMLSchema-instance" xsi:noNamespaceSchemaLocation="http://sumo.dlr.de/xsd/sumoConfiguration.xsd">

    <input>
        <net-file value="/home/yunitrish/workspace/car/hw/v1/M1354020_HW2_v1.net.xml"/>
        <route-files value="/home/yunitrish/workspace/car/hw/v1/dua.rou.xml"/>
        <additional-files value="/home/yunitrish/workspace/car/hw/v1/output_setting.xml"/>
    </input>

</configuration>
-->

<meandata xmlns:xsi="http://www.w3.org/2001/XMLSchema-instance" xsi:noNamespaceSchemaLocation="http://sumo.dlr.de/xsd/meandata_file.xsd">
    <interval begin="0.00" end="1134.00" id="01">
        <edge id="-gneE0" sampledSeconds="1491.40" traveltime="9.72" overlapTraveltime="10.26" density="14.68" laneDensity="7.34" occupancy="3.51" waitingTime="0.00" timeLoss="116.06" speed="9.22" speedRelative="0.66" departed="0" arrived="147" entered="148" left="0" laneChangedFrom="0" laneChangedTo="0"/>
        <edge id="-gneE1" sampledSeconds="10107.15" traveltime="53.30" overlapTraveltime="56.64" density="112.54" laneDensity="56.27" occupancy="26.59" waitingTime="7061.00" timeLoss="8602.78" speed="1.49" speedRelative="0.11" departed="0" arrived="0" entered="184" left="173" laneChangedFrom="29" laneChangedTo="29"/>
        <edge id="-gneE2" sampledSeconds="5492.21" traveltime="30.12" overlapTraveltime="30.83" density="54.05" laneDensity="27.03" occupancy="13.35" waitingTime="2733.00" timeLoss="3806.86" speed="3.07" speedRelative="0.22" departed="190" arrived="0" entered="0" left="186" laneChangedFrom="78" laneChangedTo="78"/>
        <edge id="-gneE3" sampledSeconds="627.11" traveltime="9.70" overlapTraveltime="10.24" density="6.17" laneDensity="3.09" occupancy="1.47" waitingTime="0.00" timeLoss="47.56" speed="9.24" speedRelative="0.67" departed="0" arrived="62" entered="62" left="0" laneChangedFrom="1" laneChangedTo="1"/>
        <edge id="-gneE4" sampledSeconds="1675.42" traveltime="27.20" overlapTraveltime="28.14" density="16.49" laneDensity="8.24" occupancy="4.06" waitingTime="833.00" timeLoss="1112.17" speed="3.36" speedRelative="0.24" departed="63" arrived="0" entered="0" left="62" laneChangedFrom="12" laneChangedTo="12"/>
        <edge id="-gneE5" sampledSeconds="1063.88" traveltime="9.73" overlapTraveltime="10.28" density="10.47" laneDensity="5.24" occupancy="2.50" waitingTime="0.00" timeLoss="84.48" speed="9.21" speedRelative="0.66" departed="0" arrived="105" entered="105" left="0" laneChangedFrom="0" laneChangedTo="0"/>
        <edge id="-gneE6" sampledSeconds="1916.81" traveltime="24.88" overlapTraveltime="25.71" density="18.87" laneDensity="9.43" occupancy="4.64" waitingTime="885.00" timeLoss="1211.55" speed="3.68" speedRelative="0.26" departed="79" arrived="0" entered="0" left="78" laneChangedFrom="21" laneChangedTo="21"/>
        <edge id="gneE0" sampledSeconds="15457.34" traveltime="57.80" overlapTraveltime="58.59" density="152.13" laneDensity="76.06" occupancy="37.77" waitingTime="9450.00" timeLoss="12950.77" speed="1.61" speedRelative="0.12" departed="288" arrived="0" entered="0" left="270" laneChangedFrom="143" laneChangedTo="143"/>
        <edge id="gneE1" sampledSeconds="13552.54" traveltime="46.26" overlapTraveltime="48.24" density="150.90" laneDensity="75.45" occupancy="38.75" waitingTime="8216.00" timeLoss="11068.31" speed="1.75" speedRelative="0.13" departed="0" arrived="0" entered="288" left="274" laneChangedFrom="85" laneChangedTo="85"/>
        <edge id="gneE2" sampledSeconds="2025.79" traveltime="9.75" overlapTraveltime="10.30" density="19.94" laneDensity="9.97" occupancy="4.77" waitingTime="0.00" timeLoss="164.06" speed="9.19" speedRelative="0.66" departed="0" arrived="199" entered="202" left="0" laneChangedFrom="1" laneChangedTo="1"/>
        <edge id="gneE3" sampledSeconds="3473.24" traveltime="31.07" overlapTraveltime="33.76" density="34.18" laneDensity="17.09" occupancy="10.15" waitingTime="1729.00" timeLoss="2381.17" speed="2.84" speedRelative="0.20" departed="111" arrived="0" entered="0" left="109" laneChangedFrom="48" laneChangedTo="48"/>
        <edge id="gneE4" sampledSeconds="1153.38" traveltime="9.82" overlapTraveltime="10.36" density="11.35" laneDensity="5.68" occupancy="2.70" waitingTime="0.00" timeLoss="99.95" speed="9.13" speedRelative="0.66" departed="0" arrived="113" entered="113" left="0" laneChangedFrom="0" laneChangedTo="0"/>
        <edge id="gneE5" sampledSeconds="2234.38" traveltime="24.20" overlapTraveltime="25.04" density="21.99" laneDensity="11.00" occupancy="5.41" waitingTime="965.00" timeLoss="1390.25" speed="3.78" speedRelative="0.27" departed="95" arrived="0" entered="0" left="93" laneChangedFrom="26" laneChangedTo="26"/>
        <edge id="gneE6" sampledSeconds="1476.75" traveltime="10.44" overlapTraveltime="11.13" density="14.53" laneDensity="7.27" occupancy="4.08" waitingTime="0.00" timeLoss="108.82" speed="8.58" speedRelative="0.62" departed="0" arrived="136" entered="136" left="0" laneChangedFrom="0" laneChangedTo="0"/>
    </interval>
</meandata>
