<?xml version="1.0" encoding="UTF-8"?>

<!-- generated on 2025-03-13 11:37:45 by Eclipse SUMO GUI Version 1.18.0
<configuration xmlns:xsi="http://www.w3.org/2001/XMLSchema-instance" xsi:noNamespaceSchemaLocation="http://sumo.dlr.de/xsd/sumoConfiguration.xsd">

    <input>
        <net-file value="/home/yunitrish/workspace/car/hw/v1/M1354020_HW2_v1.net.xml"/>
        <route-files value="/home/yunitrish/workspace/car/hw/v1/dua.rou.xml"/>
        <additional-files value="/home/yunitrish/workspace/car/hw/v1/output_setting.xml"/>
    </input>

</configuration>
-->

<meandata xmlns:xsi="http://www.w3.org/2001/XMLSchema-instance" xsi:noNamespaceSchemaLocation="http://sumo.dlr.de/xsd/meandata_file.xsd">
    <interval begin="0.00" end="1134.00" id="02">
        <edge id="-gneE0">
            <lane id="-gneE0_0" sampledSeconds="1491.40" traveltime="9.72" overlapTraveltime="10.26" density="14.68" laneDensity="14.68" occupancy="7.02" waitingTime="0.00" timeLoss="116.06" speed="9.22" speedRelative="0.66" departed="0" arrived="147" entered="148" left="0" laneChangedFrom="0" laneChangedTo="0"/>
        </edge>
        <edge id="-gneE1">
            <lane id="-gneE1_0" sampledSeconds="2034.44" traveltime="14.22" overlapTraveltime="14.82" density="22.65" laneDensity="22.65" occupancy="10.89" waitingTime="668.00" timeLoss="878.52" speed="5.68" speedRelative="0.41" departed="0" arrived="0" entered="122" left="148" laneChangedFrom="0" laneChangedTo="29"/>
            <lane id="-gneE1_1" sampledSeconds="8072.71" traveltime="179.74" overlapTraveltime="195.97" density="89.88" laneDensity="89.88" occupancy="42.28" waitingTime="6393.00" timeLoss="7724.26" speed="0.43" speedRelative="0.03" departed="0" arrived="0" entered="62" left="25" laneChangedFrom="29" laneChangedTo="0"/>
        </edge>
        <edge id="-gneE2">
            <lane id="-gneE2_0" sampledSeconds="3444.26" traveltime="23.87" overlapTraveltime="24.61" density="33.90" laneDensity="33.90" occupancy="16.76" waitingTime="1421.00" timeLoss="2120.36" speed="3.84" speedRelative="0.28" departed="190" arrived="0" entered="0" left="123" laneChangedFrom="71" laneChangedTo="7"/>
            <lane id="-gneE2_1" sampledSeconds="2047.96" traveltime="53.98" overlapTraveltime="53.60" density="20.16" laneDensity="20.16" occupancy="9.95" waitingTime="1312.00" timeLoss="1686.50" speed="1.76" speedRelative="0.13" departed="0" arrived="0" entered="0" left="63" laneChangedFrom="7" laneChangedTo="71"/>
        </edge>
        <edge id="-gneE3">
            <lane id="-gneE3_0" sampledSeconds="506.81" traveltime="9.70" overlapTraveltime="10.24" density="4.99" laneDensity="4.99" occupancy="2.38" waitingTime="0.00" timeLoss="38.59" speed="9.24" speedRelative="0.67" departed="0" arrived="51" entered="50" left="0" laneChangedFrom="0" laneChangedTo="1"/>
            <lane id="-gneE3_1" sampledSeconds="120.31" traveltime="9.70" overlapTraveltime="10.22" density="1.18" laneDensity="1.18" occupancy="0.57" waitingTime="0.00" timeLoss="8.97" speed="9.25" speedRelative="0.67" departed="0" arrived="11" entered="12" left="0" laneChangedFrom="1" laneChangedTo="0"/>
        </edge>
        <edge id="-gneE4">
            <lane id="-gneE4_0" sampledSeconds="1345.78" traveltime="22.59" overlapTraveltime="23.48" density="13.25" laneDensity="13.25" occupancy="6.53" waitingTime="567.00" timeLoss="803.46" speed="4.03" speedRelative="0.29" departed="63" arrived="0" entered="0" left="50" laneChangedFrom="12" laneChangedTo="0"/>
            <lane id="-gneE4_1" sampledSeconds="329.63" traveltime="186.83" overlapTraveltime="148.99" density="3.24" laneDensity="3.24" occupancy="1.58" waitingTime="266.00" timeLoss="308.70" speed="0.63" speedRelative="0.05" departed="0" arrived="0" entered="0" left="12" laneChangedFrom="0" laneChangedTo="12"/>
        </edge>
        <edge id="-gneE5">
            <lane id="-gneE5_0" sampledSeconds="576.00" traveltime="9.70" overlapTraveltime="10.25" density="5.67" laneDensity="5.67" occupancy="2.71" waitingTime="0.00" timeLoss="44.20" speed="9.23" speedRelative="0.66" departed="0" arrived="57" entered="57" left="0" laneChangedFrom="0" laneChangedTo="0"/>
            <lane id="-gneE5_1" sampledSeconds="487.88" traveltime="9.76" overlapTraveltime="10.31" density="4.80" laneDensity="4.80" occupancy="2.29" waitingTime="0.00" timeLoss="40.29" speed="9.17" speedRelative="0.66" departed="0" arrived="48" entered="48" left="0" laneChangedFrom="0" laneChangedTo="0"/>
        </edge>
        <edge id="-gneE6">
            <lane id="-gneE6_0" sampledSeconds="1523.69" traveltime="20.89" overlapTraveltime="21.72" density="15.00" laneDensity="15.00" occupancy="7.40" waitingTime="597.00" timeLoss="860.20" speed="4.35" speedRelative="0.31" departed="79" arrived="0" entered="0" left="57" laneChangedFrom="21" laneChangedTo="0"/>
            <lane id="-gneE6_1" sampledSeconds="393.12" traveltime="105.86" overlapTraveltime="89.04" density="3.87" laneDensity="3.87" occupancy="1.88" waitingTime="288.00" timeLoss="351.35" speed="1.06" speedRelative="0.08" departed="0" arrived="0" entered="0" left="21" laneChangedFrom="0" laneChangedTo="21"/>
        </edge>
        <edge id="gneE0">
            <lane id="gneE0_0" sampledSeconds="8365.03" traveltime="45.78" overlapTraveltime="46.78" density="82.33" laneDensity="82.33" occupancy="40.85" waitingTime="4632.00" timeLoss="6662.72" speed="2.02" speedRelative="0.15" departed="288" arrived="0" entered="0" left="162" laneChangedFrom="130" laneChangedTo="13"/>
            <lane id="gneE0_1" sampledSeconds="7092.32" traveltime="83.59" overlapTraveltime="83.42" density="69.80" laneDensity="69.80" occupancy="34.69" waitingTime="4818.00" timeLoss="6288.04" speed="1.13" speedRelative="0.08" departed="0" arrived="0" entered="0" left="108" laneChangedFrom="13" laneChangedTo="130"/>
        </edge>
        <edge id="gneE1">
            <lane id="gneE1_0" sampledSeconds="6224.05" traveltime="32.41" overlapTraveltime="33.10" density="69.30" laneDensity="69.30" occupancy="38.14" waitingTime="3480.00" timeLoss="4533.75" speed="2.56" speedRelative="0.18" departed="0" arrived="0" entered="129" left="205" laneChangedFrom="2" laneChangedTo="83"/>
            <lane id="gneE1_1" sampledSeconds="7328.49" traveltime="73.78" overlapTraveltime="79.17" density="81.60" laneDensity="81.60" occupancy="39.36" waitingTime="4736.00" timeLoss="6534.57" speed="1.06" speedRelative="0.08" departed="0" arrived="0" entered="159" left="69" laneChangedFrom="83" laneChangedTo="2"/>
        </edge>
        <edge id="gneE2">
            <lane id="gneE2_0" sampledSeconds="1631.32" traveltime="9.75" overlapTraveltime="10.30" density="16.06" laneDensity="16.06" occupancy="7.67" waitingTime="0.00" timeLoss="132.15" speed="9.19" speedRelative="0.66" departed="0" arrived="161" entered="163" left="0" laneChangedFrom="0" laneChangedTo="1"/>
            <lane id="gneE2_1" sampledSeconds="394.47" traveltime="9.75" overlapTraveltime="10.29" density="3.88" laneDensity="3.88" occupancy="1.86" waitingTime="0.00" timeLoss="31.91" speed="9.19" speedRelative="0.66" departed="0" arrived="38" entered="39" left="0" laneChangedFrom="1" laneChangedTo="0"/>
        </edge>
        <edge id="gneE3">
            <lane id="gneE3_0" sampledSeconds="1764.22" traveltime="28.42" overlapTraveltime="29.18" density="17.36" laneDensity="17.36" occupancy="8.71" waitingTime="861.00" timeLoss="1189.52" speed="3.24" speedRelative="0.23" departed="111" arrived="0" entered="0" left="62" laneChangedFrom="48" laneChangedTo="0"/>
            <lane id="gneE3_1" sampledSeconds="1709.02" traveltime="34.86" overlapTraveltime="40.10" density="16.82" laneDensity="16.82" occupancy="11.58" waitingTime="868.00" timeLoss="1191.65" speed="2.42" speedRelative="0.17" departed="0" arrived="0" entered="0" left="47" laneChangedFrom="0" laneChangedTo="48"/>
        </edge>
        <edge id="gneE4">
            <lane id="gneE4_0" sampledSeconds="908.94" traveltime="9.82" overlapTraveltime="10.36" density="8.95" laneDensity="8.95" occupancy="4.26" waitingTime="0.00" timeLoss="79.24" speed="9.13" speedRelative="0.66" departed="0" arrived="89" entered="89" left="0" laneChangedFrom="0" laneChangedTo="0"/>
            <lane id="gneE4_1" sampledSeconds="244.45" traveltime="9.80" overlapTraveltime="10.34" density="2.41" laneDensity="2.41" occupancy="1.15" waitingTime="0.00" timeLoss="20.70" speed="9.15" speedRelative="0.66" departed="0" arrived="24" entered="24" left="0" laneChangedFrom="0" laneChangedTo="0"/>
        </edge>
        <edge id="gneE5">
            <lane id="gneE5_0" sampledSeconds="1744.73" traveltime="20.04" overlapTraveltime="20.87" density="17.17" laneDensity="17.17" occupancy="8.47" waitingTime="636.00" timeLoss="953.81" speed="4.53" speedRelative="0.33" departed="95" arrived="0" entered="0" left="67" laneChangedFrom="26" laneChangedTo="0"/>
            <lane id="gneE5_1" sampledSeconds="489.65" traveltime="102.63" overlapTraveltime="87.06" density="4.82" laneDensity="4.82" occupancy="2.35" waitingTime="329.00" timeLoss="436.44" speed="1.09" speedRelative="0.08" departed="0" arrived="0" entered="0" left="26" laneChangedFrom="0" laneChangedTo="26"/>
        </edge>
        <edge id="gneE6">
            <lane id="gneE6_0" sampledSeconds="1214.96" traveltime="10.62" overlapTraveltime="11.35" density="11.96" laneDensity="11.96" occupancy="6.93" waitingTime="0.00" timeLoss="89.47" speed="8.44" speedRelative="0.61" departed="0" arrived="110" entered="110" left="0" laneChangedFrom="0" laneChangedTo="0"/>
            <lane id="gneE6_1" sampledSeconds="261.79" traveltime="9.68" overlapTraveltime="10.22" density="2.58" laneDensity="2.58" occupancy="1.23" waitingTime="0.00" timeLoss="19.35" speed="9.26" speedRelative="0.67" departed="0" arrived="26" entered="26" left="0" laneChangedFrom="0" laneChangedTo="0"/>
        </edge>
    </interval>
</meandata>
